 Q-Chem 4.2, Q-Chem, Inc., Pleasanton, CA (2014).
 Q-Chem 4.2.0 for Intel X86 EM64T Linux

User input:
--------------------------------------------------------------
$molecule
0 1
H 0.0 0.0 0.0
H 0.0 0.0 0.5
$end

$rem
method      eom-ccsd
basis       6-311G
cc_symmetry false
ee_singlets [12]
ee_triplets [12]
$end

--------------------------------------------------------------

    6      -1.0601036456      8.93E-09 Convergence criterion met
 Total energy in the final basis set = -1.0601036456
 CCSD total energy          = -1.08225305
 EOMEE-CCSD transition 1/A
 Total energy = -0.49728621 a.u.  Excitation energy = 15.9178 eV.
 EOMEE-CCSD transition 2/A
 Total energy = -0.40013428 a.u.  Excitation energy = 18.5614 eV.
 EOMEE-CCSD transition 3/A
 Total energy = 0.03077076 a.u.  Excitation energy = 30.2869 eV.
 EOMEE-CCSD transition 4/A
 Total energy = 0.33426871 a.u.  Excitation energy = 38.5455 eV.
 EOMEE-CCSD transition 5/A
 Total energy = 0.45123993 a.u.  Excitation energy = 41.7285 eV.
 EOMEE-CCSD transition 6/A
 Total energy = 0.53263080 a.u.  Excitation energy = 43.9432 eV.
 EOMEE-CCSD transition 7/A
 Total energy = 0.81532669 a.u.  Excitation energy = 51.6358 eV.
 EOMEE-CCSD transition 8/A
 Total energy = 0.83461257 a.u.  Excitation energy = 52.1606 eV.
 EOMEE-CCSD transition 9/A
 Total energy = 1.15392385 a.u.  Excitation energy = 60.8495 eV.
 EOMEE-CCSD transition 10/A
 Total energy = 1.24242927 a.u.  Excitation energy = 63.2578 eV.
 EOMEE-CCSD transition 11/A
 Total energy = 1.75333976 a.u.  Excitation energy = 77.1604 eV.
 EOMEE-CCSD transition 12/A
 Total energy = 1.89622330 a.u.  Excitation energy = 81.0485 eV.
 EOMEE-CCSD transition 1/A
 EOMEE-CCSD transition 2/A
 EOMEE-CCSD transition 3/A
 EOMEE-CCSD transition 4/A
 EOMEE-CCSD transition 5/A
 EOMEE-CCSD transition 6/A
 EOMEE-CCSD transition 7/A
 EOMEE-CCSD transition 8/A
 EOMEE-CCSD transition 9/A
 EOMEE-CCSD transition 10/A
 EOMEE-CCSD transition 11/A
 EOMEE-CCSD transition 12/A
 Total job time:  4.18s(wall), 4.14s(cpu)
        *  Thank you very much for using Q-Chem.  Have a nice day.  *
 Q-Chem 4.2, Q-Chem, Inc., Pleasanton, CA (2014).
 Q-Chem 4.2.0 for Intel X86 EM64T Linux

User input:
--------------------------------------------------------------

$molecule
0 1
H 0.0 0.0 0.0
H 0.0 0.0 0.6
$end

$rem
method      eom-ccsd
basis       6-311G
cc_symmetry false
ee_singlets [12]
ee_triplets [12]
$end

--------------------------------------------------------------

 EOMEE-CCSD transition 1/A
 EOMEE-CCSD transition 2/A
 EOMEE-CCSD transition 3/A
 EOMEE-CCSD transition 4/A
 EOMEE-CCSD transition 5/A
 EOMEE-CCSD transition 6/A
 EOMEE-CCSD transition 7/A
 EOMEE-CCSD transition 8/A
 EOMEE-CCSD transition 9/A
 EOMEE-CCSD transition 10/A
 EOMEE-CCSD transition 11/A
 EOMEE-CCSD transition 12/A
 EOMEE-CCSD transition 1/A
 EOMEE-CCSD transition 2/A
 EOMEE-CCSD transition 3/A
 EOMEE-CCSD transition 4/A
 Total job time:  4.13s(wall), 4.07s(cpu)
 Q-Chem 4.2, Q-Chem, Inc., Pleasanton, CA (2014).
 Q-Chem 4.2.0 for Intel X86 EM64T Linux

User input:
--------------------------------------------------------------

$molecule
0 1
H 0.0 0.0 0.0
H 0.0 0.0 0.7
$end

$rem
method      eom-ccsd
basis       6-311G
cc_symmetry false
ee_singlets [12]
ee_triplets [12]
$end

--------------------------------------------------------------

 Q-Chem 4.2, Q-Chem, Inc., Pleasanton, CA (2014).
 Q-Chem 4.2.0 for Intel X86 EM64T Linux
 Q-Chem 4.2, Q-Chem, Inc., Pleasanton, CA (2014).
 Q-Chem 4.2.0 for Intel X86 EM64T Linux
 Q-Chem 4.2, Q-Chem, Inc., Pleasanton, CA (2014).
 Q-Chem 4.2.0 for Intel X86 EM64T Linux
 Q-Chem 4.2, Q-Chem, Inc., Pleasanton, CA (2014).
 Q-Chem 4.2.0 for Intel X86 EM64T Linux
 Q-Chem 4.2, Q-Chem, Inc., Pleasanton, CA (2014).
 Q-Chem 4.2.0 for Intel X86 EM64T Linux
 Q-Chem 4.2, Q-Chem, Inc., Pleasanton, CA (2014).
 Q-Chem 4.2.0 for Intel X86 EM64T Linux
 Q-Chem 4.2, Q-Chem, Inc., Pleasanton, CA (2014).
 Q-Chem 4.2.0 for Intel X86 EM64T Linux
 Q-Chem 4.2, Q-Chem, Inc., Pleasanton, CA (2014).
 Q-Chem 4.2.0 for Intel X86 EM64T Linux
 Q-Chem 4.2, Q-Chem, Inc., Pleasanton, CA (2014).
 Q-Chem 4.2.0 for Intel X86 EM64T Linux
 Q-Chem 4.2, Q-Chem, Inc., Pleasanton, CA (2014).
 Q-Chem 4.2.0 for Intel X86 EM64T Linux
 Q-Chem 4.2, Q-Chem, Inc., Pleasanton, CA (2014).
 Q-Chem 4.2.0 for Intel X86 EM64T Linux
 Q-Chem 4.2, Q-Chem, Inc., Pleasanton, CA (2014).
 Q-Chem 4.2.0 for Intel X86 EM64T Linux
 Q-Chem 4.2, Q-Chem, Inc., Pleasanton, CA (2014).
 Q-Chem 4.2.0 for Intel X86 EM64T Linux
 Q-Chem 4.2, Q-Chem, Inc., Pleasanton, CA (2014).
 Q-Chem 4.2.0 for Intel X86 EM64T Linux
 Q-Chem 4.2, Q-Chem, Inc., Pleasanton, CA (2014).
 Q-Chem 4.2.0 for Intel X86 EM64T Linux
 Q-Chem 4.2, Q-Chem, Inc., Pleasanton, CA (2014).
 Q-Chem 4.2.0 for Intel X86 EM64T Linux
 Q-Chem 4.2, Q-Chem, Inc., Pleasanton, CA (2014).
 Q-Chem 4.2.0 for Intel X86 EM64T Linux
 EOMEE-CCSD transition 9/A
 EOMEE-CCSD transition 10/A
 EOMEE-CCSD transition 11/A
 EOMEE-CCSD transition 12/A
 EOMEE-CCSD transition 1/A
 EOMEE-CCSD transition 2/A
 EOMEE-CCSD transition 3/A
 EOMEE-CCSD transition 4/A
 EOMEE-CCSD transition 5/A
 EOMEE-CCSD transition 6/A
 EOMEE-CCSD transition 7/A
 EOMEE-CCSD transition 8/A
 EOMEE-CCSD transition 9/A
 EOMEE-CCSD transition 10/A
 EOMEE-CCSD transition 11/A
 EOMEE-CCSD transition 12/A
        *  Thank you very much for using Q-Chem.  Have a nice day.  *
 Q-Chem 4.2, Q-Chem, Inc., Pleasanton, CA (2014).
 Q-Chem 4.2.0 for Intel X86 EM64T Linux

             Standard Nuclear Orientation (Angstroms)
    I     Atom           X                Y                Z
 ----------------------------------------------------------------
    1      H       0.0000000000     0.0000000000    -1.2500000000
    2      H       0.0000000000     0.0000000000     1.2500000000
 ----------------------------------------------------------------

 EOMEE-CCSD transition 1/A
 EOMEE-CCSD transition 2/A
 EOMEE-CCSD transition 3/A
 EOMEE-CCSD transition 4/A
 EOMEE-CCSD transition 5/A
 EOMEE-CCSD transition 6/A
 EOMEE-CCSD transition 7/A
 EOMEE-CCSD transition 8/A
 EOMEE-CCSD transition 9/A
 EOMEE-CCSD transition 10/A
 Total energy = 1.40019896 a.u.  Excitation energy = 65.4225 eV.
 EOMEE-CCSD transition 11/A
 Total energy = 1.40270327 a.u.  Excitation energy = 65.4906 eV.
 EOMEE-CCSD transition 12/A
 Total energy = 1.82584900 a.u.  Excitation energy = 77.0050 eV.
 EOMEE-CCSD transition 1/A
 Total energy = -0.99695508 a.u.  Excitation energy = 0.1926 eV.
 EOMEE-CCSD transition 2/A
 Total energy = -0.46613617 a.u.  Excitation energy = 14.6369 eV.
 EOMEE-CCSD transition 3/A
 Total energy = -0.45700397 a.u.  Excitation energy = 14.8854 eV.
 EOMEE-CCSD transition 4/A
 Total energy = -0.32152162 a.u.  Excitation energy = 18.5721 eV.
 EOMEE-CCSD transition 5/A
 Total energy = -0.30848613 a.u.  Excitation energy = 18.9268 eV.
 EOMEE-CCSD transition 6/A
 Total energy = 0.09047348 a.u.  Excitation energy = 29.7830 eV.
 EOMEE-CCSD transition 7/A
 Total energy = 1.39849647 a.u.  Excitation energy = 65.3761 eV.
 EOMEE-CCSD transition 8/A
 Total energy = 1.40214364 a.u.  Excitation energy = 65.4754 eV.
 EOMEE-CCSD transition 9/A
 Total energy = 1.73934636 a.u.  Excitation energy = 74.6511 eV.
 EOMEE-CCSD transition 10/A
 Total energy = 1.74077959 a.u.  Excitation energy = 74.6901 eV.
 EOMEE-CCSD transition 11/A
 Total energy = 1.94856894 a.u.  Excitation energy = 80.3444 eV.
 EOMEE-CCSD transition 12/A
 Total energy = 1.94999537 a.u.  Excitation energy = 80.3832 eV.

                    Orbital Energies (a.u.)
 --------------------------------------------------------------

 Alpha MOs
 -- Occupied --
 -0.355

          Ground-State Mulliken Net Atomic Charges

     Atom                 Charge (a.u.)
  ----------------------------------------
      1 H                    -0.000000
      2 H                     0.000000
  ----------------------------------------
  Sum of atomic charges =    -0.000000

                    Cartesian Multipole Moments
 -----------------------------------------------------------------
    Charge (ESU x 10^10)
                -0.0000
    Dipole Moment (Debye)
         X       0.0000      Y       0.0000      Z       0.0000
       Tot       0.0000
    Quadrupole Moments (Debye-Ang)
        XX      -3.7768     XY       0.0000     YY      -3.7768
        XZ       0.0000     YZ       0.0000     ZZ      -1.8624

 Total job time:  4.43s(wall), 4.38s(cpu)
        *  Thank you very much for using Q-Chem.  Have a nice day.  *
