 Q-Chem 4.2, Q-Chem, Inc., Pleasanton, CA (2014).
 Q-Chem 4.2.0 for Intel X86 EM64T Linux

User input:
--------------------------------------------------------------
$molecule
0 1
N
N,1,R1

R1=0.9
$end

$rem
method      eom-ccsd
basis       6-311G
cc_symmetry false
ee_singlets [12]
ee_triplets [12]
$end

--------------------------------------------------------------

   10    -108.7249897039      8.98E-10 Convergence criterion met
 Total energy in the final basis set = -108.7249897039
 CCSD total energy          = -108.96450889
 EOMEE-CCSD transition 1/A
 Total energy = -108.49941592 a.u.  Excitation energy = 12.6558 eV.
 EOMEE-CCSD transition 2/A
 Total energy = -108.49941592 a.u.  Excitation energy = 12.6558 eV.
 EOMEE-CCSD transition 3/A
 Total energy = -108.39127202 a.u.  Excitation energy = 15.5986 eV.
 EOMEE-CCSD transition 4/A
 Total energy = -108.39127202 a.u.  Excitation energy = 15.5986 eV.
 EOMEE-CCSD transition 5/A
 Total energy = -108.38423969 a.u.  Excitation energy = 15.7899 eV.
 EOMEE-CCSD transition 6/A
 Total energy = -108.37616159 a.u.  Excitation energy = 16.0097 eV.
 EOMEE-CCSD transition 7/A
 Total energy = -108.37616152 a.u.  Excitation energy = 16.0097 eV.
 EOMEE-CCSD transition 8/A
 Total energy = -108.18012788 a.u.  Excitation energy = 21.3441 eV.
 EOMEE-CCSD transition 9/A
 Total energy = -108.12753593 a.u.  Excitation energy = 22.7752 eV.
 EOMEE-CCSD transition 10/A
 Total energy = -108.10586380 a.u.  Excitation energy = 23.3649 eV.
 EOMEE-CCSD transition 11/A
 Total energy = -108.10586380 a.u.  Excitation energy = 23.3649 eV.
 EOMEE-CCSD transition 12/A
 Total energy = -108.09157844 a.u.  Excitation energy = 23.7536 eV.
 EOMEE-CCSD transition 1/A
 EOMEE-CCSD transition 2/A
 EOMEE-CCSD transition 3/A
 EOMEE-CCSD transition 4/A
 EOMEE-CCSD transition 5/A
 EOMEE-CCSD transition 6/A
 EOMEE-CCSD transition 7/A
 EOMEE-CCSD transition 8/A
 EOMEE-CCSD transition 9/A
 EOMEE-CCSD transition 10/A
 EOMEE-CCSD transition 11/A
 EOMEE-CCSD transition 12/A
 Total job time:  14.26s(wall), 14.14s(cpu)
        *  Thank you very much for using Q-Chem.  Have a nice day.  *
 Q-Chem 4.2, Q-Chem, Inc., Pleasanton, CA (2014).
 Q-Chem 4.2.0 for Intel X86 EM64T Linux

User input:
--------------------------------------------------------------

$molecule
0 1
N
N,1,R1

R1=1.0
$end

$rem
method      eom-ccsd
basis       6-311G
cc_symmetry false
ee_singlets [12]
ee_triplets [12]
$end

--------------------------------------------------------------

 EOMEE-CCSD transition 1/A
 EOMEE-CCSD transition 2/A
 EOMEE-CCSD transition 3/A
 EOMEE-CCSD transition 4/A
 EOMEE-CCSD transition 5/A
 EOMEE-CCSD transition 6/A
 EOMEE-CCSD transition 7/A
 EOMEE-CCSD transition 8/A
 EOMEE-CCSD transition 9/A
 EOMEE-CCSD transition 10/A
 EOMEE-CCSD transition 11/A
 EOMEE-CCSD transition 12/A
 EOMEE-CCSD transition 1/A
 EOMEE-CCSD transition 2/A
 EOMEE-CCSD transition 3/A
 EOMEE-CCSD transition 4/A
 Total job time:  20.95s(wall), 21.07s(cpu)
 Q-Chem 4.2, Q-Chem, Inc., Pleasanton, CA (2014).
 Q-Chem 4.2.0 for Intel X86 EM64T Linux

User input:
--------------------------------------------------------------

$molecule
0 1
N
N,1,R1

R1=1.1
$end

$rem
method      eom-ccsd
basis       6-311G
cc_symmetry false
ee_singlets [12]
ee_triplets [12]
$end

--------------------------------------------------------------

 Q-Chem 4.2, Q-Chem, Inc., Pleasanton, CA (2014).
 Q-Chem 4.2.0 for Intel X86 EM64T Linux
 Q-Chem 4.2, Q-Chem, Inc., Pleasanton, CA (2014).
 Q-Chem 4.2.0 for Intel X86 EM64T Linux
 Q-Chem 4.2, Q-Chem, Inc., Pleasanton, CA (2014).
 Q-Chem 4.2.0 for Intel X86 EM64T Linux
 Q-Chem 4.2, Q-Chem, Inc., Pleasanton, CA (2014).
 Q-Chem 4.2.0 for Intel X86 EM64T Linux
 Q-Chem 4.2, Q-Chem, Inc., Pleasanton, CA (2014).
 Q-Chem 4.2.0 for Intel X86 EM64T Linux
 Q-Chem 4.2, Q-Chem, Inc., Pleasanton, CA (2014).
 Q-Chem 4.2.0 for Intel X86 EM64T Linux
 Q-Chem 4.2, Q-Chem, Inc., Pleasanton, CA (2014).
 Q-Chem 4.2.0 for Intel X86 EM64T Linux
 Q-Chem 4.2, Q-Chem, Inc., Pleasanton, CA (2014).
 Q-Chem 4.2.0 for Intel X86 EM64T Linux
 EOMEE-CCSD transition 9/A
 EOMEE-CCSD transition 10/A
 EOMEE-CCSD transition 11/A
 EOMEE-CCSD transition 12/A
 EOMEE-CCSD transition 1/A
 EOMEE-CCSD transition 2/A
 EOMEE-CCSD transition 3/A
 EOMEE-CCSD transition 4/A
 EOMEE-CCSD transition 5/A
 EOMEE-CCSD transition 6/A
 EOMEE-CCSD transition 7/A
 EOMEE-CCSD transition 8/A
 EOMEE-CCSD transition 9/A
 EOMEE-CCSD transition 10/A
 EOMEE-CCSD transition 11/A
 EOMEE-CCSD transition 12/A
        *  Thank you very much for using Q-Chem.  Have a nice day.  *
 Q-Chem 4.2, Q-Chem, Inc., Pleasanton, CA (2014).
 Q-Chem 4.2.0 for Intel X86 EM64T Linux

             Standard Nuclear Orientation (Angstroms)
    I     Atom           X                Y                Z
 ----------------------------------------------------------------
    1      N       0.0000000000     0.0000000000    -0.9500000000
    2      N       0.0000000000     0.0000000000     0.9500000000
 ----------------------------------------------------------------

 EOMEE-CCSD transition 1/A
 EOMEE-CCSD transition 2/A
 EOMEE-CCSD transition 3/A
 EOMEE-CCSD transition 4/A
 EOMEE-CCSD transition 5/A
 EOMEE-CCSD transition 6/A
 EOMEE-CCSD transition 7/A
 EOMEE-CCSD transition 8/A
 EOMEE-CCSD transition 9/A
 EOMEE-CCSD transition 10/A
 Total energy = -108.65381143 a.u.  Excitation energy = 7.0352 eV.
 EOMEE-CCSD transition 11/A
 Total energy = -108.65381140 a.u.  Excitation energy = 7.0352 eV.
 EOMEE-CCSD transition 12/A
 Total energy = -108.64988206 a.u.  Excitation energy = 7.1422 eV.
 EOMEE-CCSD transition 1/A
 Total energy = -108.96690861 a.u.  Excitation energy = -1.4846 eV.
 EOMEE-CCSD transition 2/A
 Total energy = -108.77434586 a.u.  Excitation energy = 3.7553 eV.
 EOMEE-CCSD transition 3/A
 Total energy = -108.77434551 a.u.  Excitation energy = 3.7553 eV.
 EOMEE-CCSD transition 4/A
 Total energy = -108.76724586 a.u.  Excitation energy = 3.9485 eV.
 EOMEE-CCSD transition 5/A
 Total energy = -108.76723659 a.u.  Excitation energy = 3.9488 eV.
 EOMEE-CCSD transition 6/A
 Total energy = -108.74621321 a.u.  Excitation energy = 4.5209 eV.
 EOMEE-CCSD transition 7/A
 Total energy = -108.74620826 a.u.  Excitation energy = 4.5210 eV.
 EOMEE-CCSD transition 8/A
 Total energy = -108.74376703 a.u.  Excitation energy = 4.5874 eV.
 EOMEE-CCSD transition 9/A
 Total energy = -108.72661554 a.u.  Excitation energy = 5.0541 eV.
 EOMEE-CCSD transition 10/A
 Total energy = -108.70970385 a.u.  Excitation energy = 5.5143 eV.
 EOMEE-CCSD transition 11/A
 Total energy = -108.69139640 a.u.  Excitation energy = 6.0125 eV.
 EOMEE-CCSD transition 12/A
 Total energy = -108.69139541 a.u.  Excitation energy = 6.0125 eV.

                    Orbital Energies (a.u.)
 --------------------------------------------------------------

 Alpha MOs
 -- Occupied --
-15.825 -15.825  -1.130  -0.965  -0.501  -0.425  -0.425

          Ground-State Mulliken Net Atomic Charges

     Atom                 Charge (a.u.)
  ----------------------------------------
      1 N                     0.000000
      2 N                    -0.000000
  ----------------------------------------
  Sum of atomic charges =    -0.000000

                    Cartesian Multipole Moments
 -----------------------------------------------------------------
    Charge (ESU x 10^10)
                 0.0000
    Dipole Moment (Debye)
         X       0.0000      Y       0.0000      Z      -0.0000
       Tot       0.0000
    Quadrupole Moments (Debye-Ang)
        XX     -11.9447     XY      -0.0000     YY     -11.9447
        XZ      -0.0000     YZ      -0.0000     ZZ     -11.8213

 Total job time:  33.82s(wall), 34.07s(cpu)
        *  Thank you very much for using Q-Chem.  Have a nice day.  *
